50
Lattice="6.3644407437284585 0.0 0.0 0.0 6.3644407437284585 -6.3644407437284585 0.0 0.0 38.18664446237075" Properties=species:S:1:pos:R:3:forces:R:3 basic_structure=W_229 general_formula=W formula=W50 space_group=229 category=slabs_adatoms note=110_ada_2_s10v10p5 md_conds=2500.0K_0.0GPa id=55 pk=279110 energy=-103149.31394279067 stress="0.04983484088018064 -0.003664367042261012 -0.0024202634736657544 -0.003664367042261012 0.03522328059189656 0.008402978494305382 -0.0024202634736657544 0.008402978494305382 0.03455761632087696" free_energy=-103149.31394279067 pbc="T T T"
W       -0.05040001      -0.09459977       4.66890027       1.99028170      -1.55013172      -0.19511305
W        3.27710018      -0.27649995       4.65869998      -1.67117412       3.09341763       0.47918344
W        6.51659988       3.05840018      -1.55360008      -1.16255849       0.78716329      -3.07130691
W        3.23449980       3.08680022      -1.56689985       0.33309798      -0.21376203      -1.58785572
W        0.10979997      -0.18120008       1.35329968      -0.44906682      -0.05224173       0.98209764
W        3.26119990      -0.10220019       1.39820017      -0.18514437      -0.42533117       0.39326308
W        0.00839979       2.83990002       1.18020025      -0.17126632       1.85377129       4.81087340
W        3.14579986       2.90400012       1.35260022       1.24111032       0.54887242       1.02666206
W        4.77109982       4.82409970      -3.21550003       1.18472654      -1.73206427      -0.69023733
W        1.77359970       4.75620003      -3.18140000      -1.64673424      -0.80860757      -0.56966467
W        4.75869998       1.31440021       2.99730027      -0.04744045       1.54333913      -0.66308905
W        1.57560004       1.33509992       2.86279991       0.68962849      -0.21499925       1.24689813
W        4.80720020       4.66119993      -0.15760010       0.13729742      -1.01877186       1.12560145
W        1.63480016       4.49260017      -0.13099992      -0.31855377       2.02302316      -0.26720910
W        4.86010016       1.49519997      -0.14559995      -1.18765888      -1.61210945      -0.85240529
W        1.60560011       1.40839982      -0.20359973       1.04246586      -0.90990775      -0.02600697
W       -0.23880018      -0.24669972      10.98659992       1.63599937       1.06740685       0.26004420
W        3.19830013      -0.14499978      11.19680022      -1.03539353       1.06462903      -0.37591302
W        6.39619994       2.74659986       4.41200025      -0.19695730       3.05793615       1.99573527
W        3.19299983       3.10720016       4.64899993      -0.25455515      -0.90762975       0.84546022
W       -0.08309987      -0.05770002       7.73760002       0.57272994      -0.50257816       2.23942597
W        3.05130001      -0.24749974       7.93079962       1.51146156       1.82437921      -0.21750659
W        0.02229973       3.21999969       8.02520019      -1.04070054      -0.68954287       0.22773469
W        2.91559995       3.62930006       8.22549996       1.72112371      -2.43075230      -0.58578652
W        4.69489965       4.47819998       2.92299988       1.08280621       1.06579682       1.41769497
W        1.60890007       4.41729992       2.85120008      -1.33473473       1.57308319       2.80804163
W        4.70459969       1.84339980       9.61279975      -0.25548049      -1.63993136      -0.41056275
W        1.45139989       1.66990005       9.73149975       0.90654706      -0.90109632      -0.82891337
W        4.83109995       4.73269997       6.53980018      -1.57809633       0.06040447      -0.88608314
W        1.46500007       4.85909967       6.51119966       0.57972437      -0.39662480      -1.38681011
W        4.76609992       1.43160012       6.34540025      -0.37264412       1.74441893      -0.01219140
W        1.73310022       1.31380005       6.27529975      -1.65360551       1.94948395       0.13701280
W       -0.13090000       0.44979985      17.74859991       1.02171500      -0.38065542      -0.56645311
W        3.06679997       0.11059998      17.70579969       2.28676872       2.91210369       1.94263993
W        6.40420004       3.34739988      11.34869969       0.00816454      -0.39767947      -0.16915211
W        3.26320024       3.53390027      11.24080014      -2.09306309      -2.92385749       2.16626549
W       -0.17540017       0.11159983      14.52529962       0.81132549       1.30411057      -0.87185080
W        3.14770028       0.25059985      14.71559958      -0.08312608      -0.69651750      -2.97540476
W        0.42049987       3.36379978      14.56770016      -0.80163886      -0.87857989      -1.14851692
W        3.27290029       3.50529975      14.36239985       0.40868790      -3.05998043      -2.92096371
W        4.69100015       4.97179991       9.92300004       1.93497213       0.58102406      -3.52800579
W        1.42980025       5.32539997       9.93200000      -0.84784055      -3.68386041      -1.84737567
W        4.70709964       1.78479985      16.03519954       0.84700854       0.94374424       0.08135870
W        1.84729993       1.87320002      16.33450010      -2.12195946       1.25852980      -1.49200217
W        4.90359984       5.13369983      12.73239975      -0.58218157      -1.23067755       2.23452802
W        1.54800001       5.27369971      12.94420006      -0.36236202      -2.27538645       0.29439928
W        4.68879997       1.77140015      12.72669976       1.23063745      -1.05570036       0.72645080
W        1.66459975       1.50029980      12.88000004      -1.28330161       1.37017764      -0.03628264
W        3.18140000       4.21269970      16.71750005      -0.02129902      -3.56134735       3.67272239
W        3.11390001       5.70010005      15.12720006      -0.41974313       4.52350943      -2.93143067
50
Lattice="6.360704752637483 0.0 0.0 0.0 6.360704752637483 -6.360704752637483 0.0 0.0 38.1642285158249" Properties=species:S:1:pos:R:3:forces:R:3 basic_structure=W_229 general_formula=W formula=W50 space_group=229 category=slabs_adatoms note=110_ada_2_s10v10p5 md_conds=500.0K_0.0GPa id=62 pk=279118 energy=-103165.56869382769 stress="0.016119175092441575 -0.00014598706081671281 -0.00024055729518225634 -0.00014598706081671281 -0.009927120135536472 -0.019577874828897907 -0.00024055729518225634 -0.019577874828897907 -0.004637614114372431" free_energy=-103165.56869382769 pbc="T T T"
W       -0.05650023       0.08609977       4.90930006       0.63295469      -0.79547798      -0.38417423
W        3.16979997       0.01200011       4.83979982      -0.12799491       0.48672731       0.74055999
W        6.36340042       3.37680020      -1.45060006       0.06090018      -0.17122904       0.30118674
W        3.22530030       3.40729978      -1.51719982      -0.58446137      -0.97115400       0.82011609
W       -0.08390024       0.18800017       1.75459977       0.78972591       0.10648429       0.08942580
W        3.15100027       0.23509992       1.78260023       0.14357374      -0.49132239      -0.46832721
W        0.02369999       3.26369987       1.70709994      -0.35391646      -0.56451347      -0.58272716
W        3.20030018       3.22089996       1.67630013      -0.35548458       0.27130075      -0.01944474
W        4.76309990       4.93720002      -3.01789998       0.10392630       0.13804510      -0.06858701
W        1.58470026       4.97190021      -3.02610020      -0.27303573      -0.34501710       0.01290540
W        4.81480034       1.68500030       3.32430021      -0.77108541      -0.71519734      -0.84042755
W        1.58210000       1.62679985       3.31619986      -0.13486233       0.36295415      -0.87976825
W        4.73550016       4.80190020       0.14850019       0.38316431       0.81711690      -0.86290182
W        1.59109976       4.80410036       0.16789971      -0.08645874       0.86054900      -1.17627635
W        4.81410003       1.79520015       0.11349978      -0.50692076      -0.34986955       0.51379254
W        1.55730025       1.81970031       0.08789985       0.43019981      -0.58862476       0.63085898
W        0.05610014       0.02600002      11.11110041      -0.60318697      -0.47246309      -0.13717941
W        3.16230006       0.04450013      11.21720015       0.10867359      -0.30530796      -1.92309826
W        6.34760043       3.20889986       4.84400043       0.27910508       0.29036496       0.23520400
W        3.16600008       3.10619992       4.83879992       0.20610426       1.42790996       0.09924124
W       -0.06210020       0.02619974       8.02460024       0.88391930       0.15715482       0.42912586
W        3.18590018       0.10829990       8.04720046      -0.60864697      -1.36348609       0.06840986
W        0.03240016       3.18619977       7.88639993      -0.05463646       0.26052885       0.78331846
W        3.26950020       3.26910011       8.00120048      -1.11687102      -0.74221192      -0.80649336
W        4.74380025       4.77730017       3.27349981       0.26253277       0.78549490       0.03718998
W        1.59249975       4.77329992       3.23570005       0.21798867       0.72821123       0.62352748
W        4.75600008       1.66259981       9.60120014       0.72972510      -0.99165803      -1.14331070
W        1.59820022       1.68690024       9.51430019      -0.55654485      -1.00587701      -0.04624309
W        4.72700035       4.86159986       6.34410013       1.59390578      -2.11254717      -0.41488992
W        1.75129984       4.75650003       6.37750019      -2.52085661       0.02922573      -0.21357280
W        4.69249989       1.60589985       6.50650037       1.34455814       0.37250580      -1.18075984
W        1.60530004       1.56340017       6.41220038      -0.51733964       0.81423366       0.49170934
W        0.03430010      -0.21139993      17.39670051      -0.21526098       2.54443105       0.54914675
W        3.15459979       0.11029971      17.55590068       0.13579384      -0.27540577      -0.30862571
W        6.34519990       3.12349976      11.03090020       0.48986586       0.44836645      -0.45211358
W        3.18960020       3.19570012      10.94770027      -0.55029475       0.37791925       2.44109893
W       -0.04799979      -0.16039980      14.15230029       1.81711122       1.45580129       0.25085148
W        3.29759988      -0.05809995      14.31740065      -2.02868935       1.04036990      -1.25636262
W       -0.05190017       3.00309989      14.13130042       0.42799149       1.22435161       0.04582477
W        3.19180037       3.05369993      14.21390053      -0.30594739       0.67404555       0.18788388
W        4.78579998       4.88360027       9.54090002       0.39559379      -2.22953082      -0.42189515
W        1.62729981       4.86529988       9.50530043      -0.34732955      -1.71607329       0.03433091
W        4.86209981       1.44699990      15.72310050       0.68153517      -0.50869276       0.40441653
W        1.50300019       1.38680029      15.68720068      -0.55002067      -0.13342586      -0.20456185
W        4.75120029       4.65890010      12.50540061       0.31751684       0.08613118       1.10366583
W        1.59270012       4.70919992      12.59350019      -0.28969468      -0.71241155      -0.14290371
W        4.75080020       1.56710019      12.64470004       0.81309775       0.11867467       0.16721349
W        1.54060022       1.65640003      12.62750006       0.20838791      -1.39395109       0.51143099
W        3.14849988       2.76420009      16.73220023      -0.23755579       1.69307889       2.61235960
W        3.19119992       5.50750017      14.25260033       0.23924501       1.38347050      -0.25015008
64
Lattice="6.36611506041569 0.0 -0.0 -0.0 9.003049044050716 -0.0 0.0 0.0 45.01523248802346" Properties=species:S:1:pos:R:3:forces:R:3 basic_structure=W_229 general_formula=W formula=W64 space_group=229 category=slabs_melting note=110_s10v20p8 md_conds=6000.0K_0.0GPa id=1 pk=279129 energy=-132064.51999691932 stress="0.03686311009264279 -3.672630460797807e-05 4.590788075997259e-06 -3.672630460797807e-05 0.03267814768256369 0.00038103541030777246 4.590788075997259e-06 0.00038103541030777246 0.024522153586746955" free_energy=-132064.51999691932 pbc="T T T"
W        0.01529968       4.46819982       3.33199979      -0.07337414       0.39296175      -0.30688456
W        0.01960000       0.03150017       7.83769985      -0.66919388      -0.32431921       0.38359599
W        3.20709980       4.49580011       3.36379981      -0.50447847      -0.26047949      -0.36562244
W        3.11919967       8.99969983       7.87389949       1.02743108       0.12875390       0.15936494
W        6.35340002       2.27449959       5.55919979       0.05321232      -0.10882606       1.33274829
W        0.01379983       6.79300000       1.12850021      -0.06953240      -0.38851914       1.02312679
W        3.16039989       2.23209999       5.65579986       0.23955122       0.28924062      -0.51373058
W        3.18009983       6.74219967       1.16579991      -0.04171718      -0.13003097       0.55924939
W        6.34499993       2.22570014       1.07230014       0.15365890       0.14874629       1.39774218
W        6.32509945       6.71819942       5.62179971       0.84112046       0.48759609      -0.04791045
W        3.20060000       2.24199994       1.12020007      -0.22623137       0.16395848       1.18391356
W        3.21559984       6.77309952       5.63559954      -0.96522092      -0.13895553      -0.28893415
W        0.00460015       4.50279965       7.89999993      -0.20054476      -0.31571527      -0.44448486
W        6.35979987       0.00399983       3.35009993       0.34248534      -0.19162278      -0.33490881
W        3.18070016       4.50849987       7.82329970       0.28696211      -0.13684928       0.83496858
W        3.21539994       8.95419930       3.34939966      -0.76995824       0.79221910      -0.16703403
W        1.59689986       4.48109948       1.10060007      -0.25744996      -0.03948623       1.15029587
W        1.59929988       0.00490000       5.62909973      -0.44707293      -0.33016358      -0.26443128
W        4.71739948       4.49279976       1.15629976       0.71351738      -0.00151824       0.61225422
W        4.75079994       0.03060001       5.60900000       0.54991603      -0.47261298       0.33224284
W        1.59699980       6.74469965       7.88969955      -0.52316936       0.24501482      -0.47829872
W        1.57440010       2.25689983       3.41039977       0.31667172      -0.30804850      -1.42734715
W        4.72199964       6.75539981       7.83619936       0.99858304       0.30815340       0.61704548
W        4.76969967       2.25119961       3.42700006      -0.08885578      -0.13327982      -1.58104358
W        1.61879993       2.28169967       7.87959971      -0.84888442      -0.31298322       0.14797187
W        1.58910009       6.69569966       3.37369976      -0.30063421       0.78879105      -0.58448323
W        4.74029967       2.24019960       7.87929987       0.80924315       0.26947861       0.01364022
W        4.75039951       6.73999954       3.39770001       0.64493757       0.09149065      -1.03501429
W        1.63219996       4.50560011       5.66189987      -0.92828985       0.09380773      -0.59743516
W        1.65959972       0.02979978       1.09910022      -0.69786605      -0.18302681       1.29186235
W        4.75180006       4.52369961       5.59829983       0.69702221      -0.52226227       0.46025266
W        4.73479999       9.00189932       1.15170024       0.59616349      -0.03649527       0.62628293
W        0.00249997       4.52170001      12.36869949      -0.00724743      -0.13343434       0.49941134
W        6.32479961       0.00369999      16.88769899       0.43847979       0.11978513      -0.91395055
W        3.17929961       4.52839971      12.36199915       0.31492157      -0.45549175       0.67538921
W        3.16250007       8.97539973      16.87559892       0.09929626       0.33988930      -0.86413492
W        6.33709958       2.18270022      14.63379951       0.83707663       1.09774047       0.66281111
W        0.05039990       6.69689967      10.09509942      -0.85797892       1.13691354       0.44123781
W        3.18649969       2.23709994      14.69169933      -0.06236185      -0.00638431      -0.49290413
W        3.18029973       6.74989949      10.08879952       0.41058281       0.37631411       0.49566627
W        0.00480005       2.23229989      10.15889936      -0.01206310       0.43381298      -0.19826008
W        6.34609999       6.72099987      14.70109953       0.39921056       0.36921941      -0.44294040
W        3.19489978       2.24389959      10.14669933       0.04581320       0.35110831      -0.19211154
W        3.18090005       6.73879953      14.63729960       0.00752408       0.48842270       0.27164091
W        6.35159968       4.54519989      16.91589897       0.12758662      -0.48253127      -1.16557825
W        6.36579994       8.93689938      12.42429923       0.11027127       0.84218849      -0.67460373
W        3.16189975       4.50539958      16.81889912       0.20772868      -0.01041785      -0.04713861
W        3.16699964       0.01170028      12.30759942       0.34047679      -0.01419249       1.25758158
W        1.66360019       4.51719981      10.13799940      -1.15380671      -0.49873616      -0.17146456
W        1.63029968       0.01940010      14.63509947      -0.26069675      -0.58064251       0.50418227
W        4.75249970       4.55119995      10.15629943       0.73685168      -0.78222934      -0.43595085
W        4.82520009       9.00259960      14.60879914      -0.82979269      -0.32880270       0.91504096
W        1.57589995       6.79799995      16.85449907      -0.01049679      -0.33232537      -0.59259943
W        1.61269992       2.26169988      12.38559961      -0.15800380       0.02771958       0.12772495
W        4.76419998       6.79489965      16.85679915      -0.11070733      -0.28798875      -0.53624959
W        4.80690006       2.26370012      12.40729915      -0.37284852       0.01035435      -0.23828007
W        1.62149980       2.28059961      16.87099940      -0.39518241      -0.31623258      -0.81933884
W        1.58670007       6.76819952      12.35489966      -0.16387106      -0.36718670       0.48824426
W        4.77549983       2.21069966      16.84569919      -0.02858398       0.17832992      -0.30789655
W        4.72279986       6.78449996      12.40109919       0.82210664      -0.71427123      -0.19283531
W        1.63780024       4.50599990      14.65419909      -0.74345813      -0.12400199       0.24478702
W        1.58859972       0.02650023      10.15619949      -0.13298311      -0.37944623      -0.58658125
W        4.81060004       4.46639948      14.72069953      -0.11231736       0.50543954      -0.60196056
W        4.80399966       0.00769982      10.16879930      -0.14352823      -0.32793984      -0.79793415
45
Lattice="6.365796495736261 0.0 0.0 0.0 6.365796495736261 -6.365796495736261 0.0 0.0 38.19477897441757" Properties=species:S:1:pos:R:3:forces:R:3 basic_structure=W_229 general_formula=W formula=W45 space_group=229 category=slabs_vacancies note=110_vac_3_s10v10p5 md_conds=2500.0K_0.0GPa id=22 pk=279138 energy=-92832.47462283529 stress="0.051669319795349146 0.002230204847319468 0.0026736749754608033 0.002230204847319468 0.04620444566968201 0.004003167202269609 0.0026736749754608033 0.004003167202269609 0.05092469396942239" free_energy=-92832.47462283529 pbc="T T T"
W        0.02080024      -0.07039998       4.67349979      -0.27722766       0.04148578      -0.52702575
W        3.19029976      -0.08829996       4.78130009      -0.54663453       0.19841949      -1.45010270
W        6.48130005       3.21049970      -1.75570004      -0.35372877       0.27779356      -0.49928304
W        3.29560022       2.69050007      -1.97450011      -0.48751278       2.97099326       1.40299572
W        0.04929991      -0.26039991       1.27320004       0.08553289       1.74875844       2.46536397
W        3.33219973       0.06959980       1.35149997      -0.52282946      -0.19771115       0.94455260
W       -0.05880023       3.10199980       1.53689998       0.71565422       0.30313358      -0.65438021
W        3.13759988       3.14999981       1.36709999       0.14912655      -0.03309293       0.60736553
W        4.73719977       4.60799956      -3.43689989       0.97092337       1.99425174       1.16917034
W        1.85459969       4.51739964      -3.33419986      -1.02271850       2.19209350       0.80939973
W        4.70359982       1.52739966       3.04959974       1.20942404      -0.68011746      -0.15614669
W        1.66199997       1.58309975       3.04949980      -1.09202285      -0.96093181      -0.12095009
W        4.73169972       4.78859975      -0.13889977       0.42909166      -0.72368275       0.68008867
W        1.54279980       4.72310016      -0.07149999       0.43565029       0.11030495      -0.31072913
W        4.97350004       1.69049964      -0.36349971      -0.83906383      -0.89124231       2.29324610
W        1.51729969       1.55690004      -0.27460009       1.02514254       0.37954753       1.66906401
W        0.10130019      -0.11989978      11.26999975      -2.24691636       2.27772846       0.02816644
W        3.12569966      -0.09189982      11.22359946       0.88889361       2.60577012       0.29904578
W        6.23859961       3.02519964       4.68619955       1.73173337       0.21554998       0.76702307
W        3.26919999       3.23569998       4.83490010      -1.32841624      -2.23432876      -1.56154382
W       -0.11199982       0.07379995       8.03989976       0.50540972      -1.36146854      -0.08549278
W        3.20719968      -0.06949986       8.03769974      -0.60073491       0.83927209      -0.51202131
W       -0.04709989       3.25929990       7.82940006      -0.26902481      -0.45469985       3.19767560
W        3.03379984       3.23230001       8.00379996       0.87675569       0.38152651       1.71391639
W        4.86630003       4.76360000       3.34720009      -1.34696007       0.05239754      -1.51274505
W        1.62690024       4.91770002       3.19909984      -0.32409552      -3.47852954      -0.86680604
W        4.65630004       1.65639998       9.68559947       0.74350313      -0.18345515      -0.05227875
W        1.58419975       1.47430001       9.58529998      -0.45264348       1.81671141       1.07091126
W        4.64439982       4.98269989       6.61179952       0.79662855      -1.04770705      -0.93274403
W        1.58079978       4.51249988       6.18269964      -0.90817457       2.57149191       2.26102298
W        4.59099970       1.72369982       6.56379950       1.61851818      -1.52249391      -2.06997587
W        1.47489967       1.50339997       6.62779995       0.42158353      -0.01883025      -3.41821660
W        3.12229968       0.15820023      17.24179928      -0.16243716      -1.58609786       2.81278043
W        6.24959970       3.39359975      11.36369982       1.52138268      -1.33958588      -2.29809237
W        3.20200009       3.47749967      11.24319975       0.42577725      -2.63072550       0.29672125
W        0.05169982       0.21430008      14.65149939      -0.80082844      -2.29690709      -0.85033966
W        3.23839972       0.34519996      14.63569948      -0.81320059      -1.05188124      -2.55578993
W        0.02340003       3.08690013      14.52919971      -2.63796496       1.50998575      -0.42944982
W        4.88379960       4.80219964       9.60249973      -0.84316551       0.94845939       0.38425394
W        1.61089982       4.94469991       9.77829947      -0.77274274      -1.28207391      -1.53329023
W        4.86070004       1.39940005      16.15829934       1.31417696       1.36473667      -0.57089880
W        5.04979984       4.91080013      12.67079963      -1.66000962      -0.14694857       0.17643296
W        1.79790018       4.70449994      12.78259957      -0.88044497      -0.02049709      -0.28564056
W        4.64479959       1.69310007      12.86229934      -0.21496351       0.91384257       0.41316034
W        1.14489996       1.80949993      13.00809964       5.53955309      -1.57124614      -2.20841409
54
Lattice="10.537978834368335 0.0 0.0 -0.0 10.537978834368335 0.0 -0.0 -0.0 10.537978834368335" Properties=species:S:1:pos:R:3:forces:R:3 basic_structure=W_229 general_formula=W formula=W54 space_group=229 category=bulks_melting note=pbi_8 md_conds=10000.0K_0.0GPa id=37 pk=279145 energy=-111330.1059218497 stress="-0.03250645220852139 0.004586197287921262 -0.019677954008954647 0.004586197287921262 -0.01068184569523042 0.0036542673084938174 -0.019677954008954647 0.0036542673084938174 0.004601805967379652" free_energy=-111330.1059218497 pbc="T T T"
W        0.35880026       2.26210045       9.74070065       5.25684204      -7.11349708      -0.67542057
W        3.91559996       9.98840005       9.02970005       0.35918903       1.19625691       2.67620574
W        2.64350047      10.03289983       5.70800056      -0.09830150       0.65804531      -3.16360977
W        6.93470033       6.26300008       7.57509963       0.20341437       0.35459832      -0.30559695
W        0.65869955       9.18839991       7.27079968       4.28727133       1.22517899       1.10636292
W        9.90850005       0.29340051       6.14969994       1.39585191      -1.51005799      -1.64836766
W        6.74370052       7.74590024       5.48440046      -2.74893120       2.73680433       3.21085251
W        7.75380057       6.23440000       0.58389992      -0.08322430      -0.48244643       0.84872013
W        1.15680030       6.13570024       6.17239980      -9.42741922       4.19923701      -2.22998925
W        9.55339966       8.04319981       6.19339989      -4.15361896      -3.68502769      -3.50681322
W        4.75219956       7.64590009       9.13789981       2.41764404      -3.55528751       4.45878551
W        3.00200040       5.51090031       6.59250055       8.27683128      -3.74893837       3.80219852
W        4.70550051       3.09739967       2.73270024       5.69448031       2.44071481      -0.65246962
W        1.56570023       1.98749969       5.81830053       1.06186663       1.34838163       0.96681038
W        3.46680008       1.48809961       3.42369975      10.50878665     -10.19660819       2.10113944
W        7.71930028       1.56239973       6.32390011      -7.65645931      -4.19025383      -3.01935571
W        9.17989997       3.61669967       9.92300030      -7.65676604       2.26898208       2.79457625
W        8.38169971       4.05780050       2.37490003       0.39067990       0.27859368      -0.30187117
W        9.29830049       8.01259963       8.73649976      -1.30495698      -3.88840478       2.51912831
W        7.03509987       3.57170039       7.18880051      -1.20970558       3.09080333       1.91799745
W       10.53760052       6.74240013       0.91579989      -0.11328409      -2.11208051      -1.59664041
W        1.84230004      10.25960021       0.40849948      -0.74986815       2.04702903       0.41197120
W        4.83149996       5.39210041       5.02649999       2.23417115       0.68956010      -1.08564960
W        2.53329955       6.31150007       0.09369949       2.23626943       0.87729562       0.90171519
W        9.98210045       2.32249993       4.31959972      -5.11218869       1.50783322      -2.81428787
W        9.00810036       5.02249977       5.41410055       3.61290362      -2.48657223       1.11323316
W        5.10400050       4.28570010      10.40089975       2.56785174       0.47517997      -0.84955676
W        2.47960012       0.95120012       7.77150016      -0.67258825      -1.81793397       0.67543240
W        5.22440007      10.25320049       6.53690006       0.79688540       0.92550406       1.84813312
W        9.56379960      10.22710003       9.76980022       2.12470823       2.64408727       0.50433217
W        9.12910059       0.95430039       1.43910011       0.22943882       2.17947324       0.95302927
W        9.58060030       7.02620055       3.29030053      -0.39187135      -0.51680022       1.37112818
W        1.55969990       2.03180030       3.37110048      -7.68459823       9.89672243      -5.12575152
W        0.74230050       4.70450045       9.86040049       3.18452621       4.22880444      -1.99806032
W        7.57219958       6.09639990       4.09180023      -6.84057371      -2.19192767      -5.95848658
W        8.16509999       9.79820007       4.50519987       3.68252267       3.21461634       6.29741943
W        7.16709965       2.66939966       0.42260035      -2.17448042      -0.56060308       1.30839686
W        1.33830013       8.42639971       9.35050037       2.48326862      -2.90341002       3.28872531
W        3.08460024       9.34880059       2.45490015       1.67573783       0.33245367      -0.42769041
W        9.61829992       8.96060042       1.55740052       0.75003219       0.57776802      -2.67314176
W        7.43749997       9.23689990       2.65850022      -5.84697141      -3.05913428      -7.01046013
W        4.37070049       5.22879967       2.08179985      -0.33646433       4.80856584       0.90902124
W        0.25729951       3.67759970       1.53289971      -1.15788731       0.31130557       2.61329085
W        2.77740024       3.62719971       0.86360001      -1.72544162      -1.12015971       1.98951320
W        5.52780007       1.85120042       8.85269995       3.04232209      -0.86604010      -0.82459855
W        5.03289970       9.58869979       4.30690040       0.03004591      -0.68666786      -2.02614062
W        0.52820038       0.06020031       3.18640027      -2.50362507      -5.09210504       1.18910976
W        3.39180023       2.68559969       9.27389980      -2.10855373       0.98423629      -1.36804851
W        5.69520008       7.35639969       1.55859974       0.40901958       0.10811283      -0.52563093